<VTKFile type="PolyData" version="1.0" byte_order="LittleEndian" header_type="UInt64">
  <PolyData>
    <Piece NumberOfPoints="2601" NumberOfVerts="0" NumberOfLines="0" NumberOfStrips="0" NumberOfPolys="2500">
      <PointData>
        <DataArray type="Float32" Name="zvalue" NumberOfComponents="1" format="ascii" RangeMin="-0.9036743711632731" RangeMax="2.312535423847214">
          2.312535423847214 2.312535423847214 2.312535423847214 2.312535423847214 2.312535423847214 2.312535423847214
          2.312535423847214 2.312535423847214 2.312535423847214 2.312535423847214 2.312535423847214 2.312535423847214
          2.312535423847214 2.312535423847214 2.312535423847214 2.312535423847214 2.312535423847214 2.312535423847214
          2.312535423847214 2.312535423847214 2.312535423847214 2.312535423847214 2.312535423847214 2.312535423847214
          2.312535423847214 2.312535423847214 2.312535423847214 2.312535423847214 2.312535423847214 2.312535423847214
          2.312535423847214 2.312535423847214 2.312535423847214 2.312535423847214 2.312535423847214 2.312535423847214
          2.312535423847214 2.312535423847214 2.312535423847214 2.312535423847214 2.312535423847214 2.312535423847214
          2.312535423847214 2.312535423847214 2.312535423847214 2.312535423847214 2.312535423847214 2.312535423847214
          2.312535423847214 2.312535423847214 2.312535423847214 2.312535423847214 2.312535423847214 2.312535423847214
          2.312535423847214 2.312535423847214 2.312535423847214 2.312535423847214 2.312535423847214 2.312535423847214
          2.312535423847214 2.312535423847214 2.312535423847214 2.312535423847214 2.312535423847214 2.312535423847214
          2.312535423847214 2.312535423847214 2.312535423847214 2.312535423847214 2.312535423847214 2.312535423847214
          2.312535423847214 2.312535423847214 2.312535423847214 2.312535423847214 2.312535423847214 2.312535423847214
          2.312535423847214 2.312535423847214 2.312535423847214 2.312535423847214 2.312535423847214 2.312535423847214
          2.312535423847214 2.312535423847214 2.312535423847214 2.312535423847214 2.312535423847214 2.312535423847214
          2.312535423847214 2.312535423847214 2.312535423847214 2.312535423847214 2.312535423847214 2.312535423847214
          2.312535423847214 2.312535423847214 2.312535423847214 2.312535423847214 2.312535423847214 2.312535423847214
          2.312535423847214 2.312535423847214 2.312535423847214 2.312535423847214 2.312535423847214 2.312535423847214
          2.312535423847214 2.312535423847214 2.312535423847214 2.312535423847214 2.312535423847214 2.312535423847214
          2.312535423847214 2.312535423847214 2.312535423847214 2.312535423847214 2.312535423847214 2.312535423847214
          2.312535423847214 2.312535423847214 2.312535423847214 2.312535423847214 2.312535423847214 2.312535423847214
          2.312535423847214 2.312535423847214 2.312535423847214 2.312535423847214 2.312535423847214 2.312535423847214
          2.312535423847214 2.312535423847214 2.312535423847214 2.312535423847214 2.312535423847214 2.312535423847214
          2.312535423847214 2.312535423847214 2.312535423847214 2.312535423847214 2.312535423847214 2.312535423847214
          2.312535423847214 2.312535423847214 2.312535423847214 2.312535423847214 2.312535423847214 2.312535423847214
          2.312535423847214 2.312535423847214 2.312535423847214 2.312535423847214 2.312535423847214 2.312535423847214
          2.312535423847214 2.312535423847214 2.312535423847214 2.312535423847214 2.312535423847214 2.312535423847214
          2.312535423847214 2.312535423847214 2.312535423847214 2.312535423847214 2.312535423847214 2.312535423847214
          2.312535423847214 2.312535423847214 2.312535423847214 2.312535423847214 2.312535423847214 2.312535423847214
          2.312535423847214 2.312535423847214 2.312535423847214 2.312535423847214 2.312535423847214 2.312535423847214
          2.312535423847214 2.312535423847214 2.312535423847214 2.312535423847214 2.312535423847214 2.312535423847214
          2.312535423847214 2.312535423847214 2.312535423847214 2.312535423847214 2.312535423847214 2.312535423847214
          2.312535423847214 2.312535423847214 2.312535423847214 2.312535423847214 2.312535423847214 2.312535423847214
          2.312535423847214 2.312535423847214 2.312535423847214 2.312535423847214 2.312535423847214 2.312535423847214
          2.312535423847214 2.312535423847214 2.312535423847214 2.312535423847214 2.312535423847214 2.312535423847214
          2.312535423847214 2.312535423847214 2.312535423847214 2.312535423847214 2.312535423847214 2.312535423847214
          2.312535423847214 2.312535423847214 2.312535423847214 2.312535423847214 2.312535423847214 2.312535423847214
          2.312535423847214 2.312535423847214 2.312535423847214 2.312535423847214 2.312535423847214 2.312535423847214
          2.312535423847214 2.312535423847214 2.312535423847214 2.312535423847214 2.312535423847214 2.312535423847214
          2.312535423847214 2.312535423847214 2.312535423847214 2.312535423847214 2.312535423847214 2.312535423847214
          2.312535423847214 2.312535423847214 2.312535423847214 2.312535423847214 2.312535423847214 2.312535423847214
          2.312535423847214 2.312535423847214 2.312535423847214 2.312535423847214 2.312535423847214 2.312535423847214
          2.312535423847214 2.312535423847214 2.312535423847214 2.312535423847214 2.312535423847214 2.312535423847214
          2.312535423847214 2.312535423847214 2.312535423847214 2.312535423847214 2.312535423847214 2.312535423847214
          2.312535423847214 2.312535423847214 2.312535423847214 2.312535423847214 2.312535423847214 2.312535423847214
          2.312535423847214 2.312535423847214 2.312535423847214 2.312535423847214 2.312535423847214 2.312535423847214
          2.312535423847214 2.312535423847214 2.312535423847214 2.312535423847214 2.312535423847214 2.312535423847214
          2.312535423847214 2.312535423847214 2.312535423847214 2.312535423847214 2.312535423847214 2.312535423847214
          2.312535423847214 2.312535423847214 2.312535423847214 2.312535423847214 2.312535423847214 2.312535423847214
          2.312535423847214 2.312535423847214 2.312535423847214 2.312535423847214 2.312535423847214 2.312535423847214
          2.312535423847214 2.312535423847214 2.312535423847214 2.312535423847214 2.312535423847214 2.312535423847214
          2.312535423847214 2.312535423847214 2.312535423847214 2.312535423847214 2.312535423847214 2.312535423847214
          2.312535423847214 2.312535423847214 2.312535423847214 2.312535423847214 2.312535423847214 2.312535423847214
          2.312535423847214 2.312535423847214 2.312535423847214 2.312535423847214 2.312535423847214 2.312535423847214
          2.312535423847214 2.312535423847214 2.312535423847214 2.312535423847214 2.312535423847214 2.312535423847214
          2.312535423847214 2.312535423847214 2.312535423847214 2.312535423847214 2.312535423847214 2.312535423847214
          2.312535423847214 2.312535423847214 2.312535423847214 2.312535423847214 2.312535423847214 2.312535423847214
          2.312535423847214 2.312535423847214 2.312535423847214 2.312535423847214 2.312535423847214 2.312535423847214
          2.312535423847214 2.312535423847214 2.312535423847214 2.312535423847214 2.312535423847214 2.312535423847214
          2.312535423847214 2.312535423847214 2.312535423847214 2.312535423847214 2.312535423847214 2.312535423847214
          2.312535423847214 2.312535423847214 2.312535423847214 2.312535423847214 2.312535423847214 2.312535423847214
          2.312535423847214 2.312535423847214 2.312535423847214 2.312535423847214 2.312535423847214 2.312535423847214
          2.312535423847214 2.312535423847214 2.312535423847214 2.312535423847214 2.312535423847214 2.312535423847214
          2.312535423847214 2.312535423847214 2.312535423847214 2.312535423847214 2.312535423847214 2.312535423847214
          2.312535423847214 2.312535423847214 2.312535423847214 2.312535423847214 2.312535423847214 2.312535423847214
          2.312535423847214 2.312535423847214 2.312535423847214 2.312535423847214 2.312535423847214 2.312535423847214
          2.312535423847214 2.312535423847214 2.312535423847214 2.312535423847214 2.312535423847214 2.312535423847214
          2.312535423847214 2.312535423847214 2.312535423847214 2.312535423847214 2.312535423847214 2.312535423847214
          2.312535423847214 2.312535423847214 2.312535423847214 2.312535423847214 2.312535423847214 2.312535423847214
          2.312535423847214 2.312535423847214 2.312535423847214 2.312535423847214 2.312535423847214 2.312535423847214
          2.312535423847214 2.312535423847214 2.312535423847214 2.312535423847214 2.312535423847214 2.312535423847214
          2.312535423847214 2.312535423847214 2.312535423847214 2.312535423847214 2.312535423847214 2.312535423847214
          2.312535423847214 2.312535423847214 2.312535423847214 2.312535423847214 2.312535423847214 2.312535423847214
          2.312535423847214 2.312535423847214 2.312535423847214 2.312535423847214 2.312535423847214 2.312535423847214
          2.312535423847214 2.312535423847214 2.312535423847214 2.312535423847214 2.312535423847214 2.312535423847214
          2.312535423847214 2.312535423847214 2.312535423847214 2.312535423847214 2.312535423847214 2.312535423847214
          2.312535423847214 2.312535423847214 2.312535423847214 2.312535423847214 2.312535423847214 2.312535423847214
          2.312535423847214 2.312535423847214 2.312535423847214 2.312535423847214 2.312535423847214 2.312535423847214
          2.312535423847214 2.312535423847214 2.312535423847214 2.312535423847214 2.312535423847214 2.312535423847214
          2.312535423847214 2.312535423847214 2.312535423847214 2.312535423847214 2.312535423847214 2.312535423847214
          2.312535423847214 2.312535423847214 2.312535423847214 2.312535423847214 2.312535423847214 2.312535423847214
          2.312535423847214 2.312535423847214 2.312535423847214 2.312535423847214 2.312535423847214 2.312535423847214
          2.312535423847214 2.312535423847214 2.312535423847214 2.312535423847214 2.312535423847214 2.312535423847214
          2.312535423847214 2.312535423847214 2.312535423847214 2.312535423847214 2.312535423847214 2.312535423847214
          2.312535423847214 2.312535423847214 2.312535423847214 2.312535423847214 2.312535423847214 2.312535423847214
          2.312535423847214 2.312535423847214 2.312535423847214 2.312535423847214 2.312535423847214 2.312535423847214
          2.312535423847214 2.312535423847214 2.312535423847214 2.312535423847214 2.312535423847214 2.312535423847214
          2.312535423847214 2.312535423847214 2.312535423847214 2.312535423847214 2.312535423847214 2.312535423847214
          2.312535423847214 2.312535423847214 2.312535423847214 2.312535423847214 2.312535423847214 2.2651574498085663
          2.2039618737971023 2.1982522223459386 2.214424901573487 2.2192847617338507 2.2053135386047362 2.186211433123774
          2.1825383795326756 2.2123357325856774 2.2849709121021275 2.312535423847214 2.312535423847214 2.312535423847214
          2.312535423847214 2.312535423847214 2.312535423847214 2.312535423847214 2.312535423847214 2.312535423847214
          2.312535423847214 2.312535423847214 2.312535423847214 2.312535423847214 2.312535423847214 2.312535423847214
          2.312535423847214 2.312535423847214 2.312535423847214 2.312535423847214 2.312535423847214 2.312535423847214
          2.312535423847214 2.312535423847214 2.312535423847214 2.312535423847214 2.312535423847214 2.312535423847214
          2.312535423847214 2.312535423847214 2.312535423847214 2.312535423847214 2.312535423847214 2.312535423847214
          2.312535423847214 2.312535423847214 2.312535423847214 2.312535423847214 2.312535423847214 2.312535423847214
          2.293108645557861 2.1816696054447116 2.125064388359743 2.138080340767105 2.1807000504471894 2.2012714104699938
          2.194624940763474 2.1795495292150537 2.1698778520833835 2.1698438906678357 2.187138445195688 2.2313154668568944
          2.3111304688057195 2.312535423847214 2.312535423847214 2.312535423847214 2.312535423847214 2.312535423847214
          2.312535423847214 2.312535423847214 2.312535423847214 2.312535423847214 2.312535423847214 2.312535423847214
          2.312535423847214 2.312535423847214 2.312535423847214 2.312535423847214 2.312535423847214 2.312535423847214
          2.312535423847214 2.312535423847214 2.312535423847214 2.312535423847214 2.312535423847214 2.312535423847214
          2.312535423847214 2.312535423847214 2.312535423847214 2.312535423847214 2.312535423847214 2.312535423847214
          2.312535423847214 2.312535423847214 2.312535423847214 2.312535423847214 2.312535423847214 2.312535423847214
          2.312535423847214 2.312535423847214 2.223736140960544 2.1117873087989287 2.0479024008152664 2.0545382981064746
          2.1039699222730572 2.148883294043281 2.1755451001491815 2.192069863622604 2.204284779204455 2.210634358694549
          2.2122926765790547 2.2160612132028232 2.231883828819973 2.2711366106988358 2.312535423847214 2.312535423847214
          2.312535423847214 2.312535423847214 2.312535423847214 2.312535423847214 2.312535423847214 2.312535423847214
          2.312535423847214 2.312535423847214 2.312535423847214 2.312535423847214 2.312535423847214 2.312535423847214
          2.312535423847214 2.312535423847214 2.312535423847214 2.312535423847214 2.312535423847214 2.312535423847214
          2.312535423847214 2.312535423847214 2.312535423847214 2.312535423847214 2.312535423847214 2.312535423847214
          2.312535423847214 2.312535423847214 2.312535423847214 2.312535423847214 2.312535423847214 2.312535423847214
          2.312535423847214 2.312535423847214 2.312535423847214 2.297364660689598 2.155899590509899 2.033281179869791
          1.9478583662102267 1.9243199694892839 1.9566106563704928 2.0094749137657035 2.067586828029296 2.1287520348341062
          2.183072707443138 2.2203582408695475 2.239373073695011 2.2451196423308764 2.245656780917109 2.249580189214215
          2.2642184287797993 2.2976054983558796 2.312535423847214 2.312535423847214 2.312535423847214 2.312535423847214
          2.312535423847214 2.312535423847214 2.312535423847214 2.312535423847214 2.312535423847214 2.312535423847214
          2.312535423847214 2.312535423847214 2.312535423847214 2.312535423847214 2.312535423847214 2.312535423847214
          2.312535423847214 2.312535423847214 2.312535423847214 2.312535423847214 2.312535423847214 2.312535423847214
          2.312535423847214 2.312535423847214 2.312535423847214 2.312535423847214 2.312535423847214 2.312535423847214
          2.312535423847214 2.312535423847214 2.312535423847214 2.312535423847214 2.312535423847214 2.2278612793088706
          2.0861920065464252 1.9495853544135935 1.8366504606884628 1.778786921777147 1.789848884287005 1.841513839121885
          1.907858534950698 1.988634905515207 2.0754480943495586 2.150307783989849 2.2034465255156683 2.233676884235186
          2.2478868291948344 2.2550921908005 2.2621804301130592 2.2729457751631856 2.2905313581017457 2.312535423847214
          2.312535423847214 2.312535423847214 2.312535423847214 2.312535423847214 2.312535423847214 2.312535423847214
          2.312535423847214 2.312535423847214 2.312535423847214 2.312535423847214 2.312535423847214 2.312535423847214
          2.312535423847214 2.312535423847214 2.312535423847214 2.312535423847214 2.312535423847214 2.312535423847214
          2.312535423847214 2.312535423847214 2.312535423847214 2.312535423847214 2.312535423847214 2.312535423847214
          2.312535423847214 2.312535423847214 2.312535423847214 2.312535423847214 2.312535423847214 2.312535423847214
          2.2896400889200827 2.1553853877213145 2.0207230680877357 1.8774594348509857 1.7384932235315882 1.6455276790407505
          1.631419112911125 1.679232357448184 1.746923382235604 1.824160297581233 1.9145247888783026 2.0074347207839938
          2.0894496410174566 2.1532307711056333 2.195504337721423 2.2230588701596057 2.2444808417320856 2.2649906774048305
          2.28564249101907 2.305011788427926 2.312535423847214 2.312535423847214 2.312535423847214 2.312535423847214
          2.312535423847214 2.312535423847214 2.312535423847214 2.312535423847214 2.312535423847214 2.312535423847214
          2.312535423847214 2.312535423847214 2.312535423847214 2.312535423847214 2.312535423847214 2.312535423847214
          2.312535423847214 2.312535423847214 2.312535423847214 2.312535423847214 2.312535423847214 2.312535423847214
          2.312535423847214 2.312535423847214 2.312535423847214 2.312535423847214 2.312535423847214 2.312535423847214
          2.312535423847214 2.312535423847214 2.206684731128923 2.0880507655784757 1.9673021508379032 1.8312096091478558
          1.6781471462143287 1.5409036925187973 1.4786216158242989 1.5060625203492144 1.5778036621126894 1.654580978493343
          1.733979303580862 1.820861094225113 1.910571110706848 1.995787239599492 2.069087529894448 2.1265062266718653
          2.1719828013116316 2.2127740256015964 2.2525381398095625 2.2893279516743488 2.312535423847214 2.312535423847214
          2.312535423847214 2.312535423847214 2.312535423847214 2.312535423847214 2.312535423847214 2.312535423847214
          2.312535423847214 2.312535423847214 2.312535423847214 2.312535423847214 2.312535423847214 2.312535423847214
          2.312535423847214 2.312535423847214 2.312535423847214 2.312535423847214 2.312535423847214 2.312535423847214
          2.312535423847214 2.312535423847214 2.312535423847214 2.312535423847214 2.312535423847214 2.312535423847214
          2.312535423847214 2.312535423847214 2.312535423847214 2.2337276930912515 2.1347143474339303 2.035338958268507
          1.9333442860202346 1.814702928673036 1.6672364889934683 1.5004142783708094 1.3660285980994165 1.3227321007521076
          1.3665384470835207 1.4454546522294143 1.524258831239761 1.6007366326565997 1.6819476607925352 1.7701636824857774
          1.861594679746371 1.947511673351387 2.0235870033140078 2.0911458214922845 2.155130344095064 2.216216198666234
          2.269905783998259 2.3119820734111562 2.312535423847214 2.312535423847214 2.312535423847214 2.312535423847214
          2.312535423847214 2.312535423847214 2.312535423847214 2.312535423847214 2.312535423847214 2.312535423847214
          2.312535423847214 2.312535423847214 2.312535423847214 2.312535423847214 2.312535423847214 2.312535423847214
          2.312535423847214 2.312535423847214 2.312535423847214 2.312535423847214 2.312535423847214 2.312535423847214
          2.312535423847214 2.312535423847214 2.312535423847214 2.312535423847214 2.2465736960664073 2.159106275309427
          2.0749046579796393 1.9958964580675247 1.914974739468431 1.8187025321495187 1.692168400867197 1.5306864952486108
          1.3562818146151636 1.2251148510166678 1.1756019903208113 1.1992010691311112 1.2601581114791247 1.3298642875244138
          1.403113823527157 1.484647825451654 1.5788016388704058 1.6822473747199207 1.7850738327056224 1.882235474700229
          1.9750620802669372 2.0651962863365783 2.148662021386827 2.22049542503191 2.278438618806268 2.312535423847214
          2.312535423847214 2.312535423847214 2.312535423847214 2.312535423847214 2.312535423847214 2.312535423847214
          2.312535423847214 2.312535423847214 2.312535423847214 2.312535423847214 2.312535423847214 2.312535423847214
          2.312535423847214 2.312535423847214 2.312535423847214 2.312535423847214 2.312535423847214 2.312535423847214
          2.312535423847214 2.312535423847214 2.312535423847214 2.312535423847214 2.312535423847214 2.312535423847214
          2.1955424889460473 2.101379111476389 2.023734152710854 1.9587532479201928 1.8982938743052158 1.8247115737257824
          1.7235265776667583 1.586747751891628 1.4207993038539437 1.2556106324392609 1.1293573562448573 1.053900169319855
          1.0271505764471216 1.040218513533282 1.0814846647178582 1.146145681646968 1.2304116296296927 1.3357542943939031
          1.4550245845110796 1.5768746704603191 1.6975059311155012 1.8181921069289444 1.9374552017450106 2.04801614299157
          2.1434447337166036 2.2215378525726712 2.282179919820619 2.312535423847214 2.312535423847214 2.312535423847214
          2.312535423847214 2.312535423847214 2.312535423847214 2.312535423847214 2.312535423847214 2.312535423847214
          2.312535423847214 2.312535423847214 2.312535423847214 2.312535423847214 2.312535423847214 2.312535423847214
          2.312535423847214 2.312535423847214 2.312535423847214 2.312535423847214 2.312535423847214 2.312535423847214
          2.312535423847214 2.312535423847214 2.188500413064442 2.0691232978543153 1.9842840679182154 1.921692912058832
          1.8724830693562313 1.8188049016680559 1.7405453678984133 1.6307255516245258 1.4911179917368236 1.3373071460411554
          1.193431039008287 1.0700338994105845 0.9642138530806238 0.8799962134294135 0.8272239249986334 0.8167591553168905
          0.8535964940911831 0.933430377973013 1.0468536295551008 1.1794041708311498 1.3202096220098265 1.4672044593424634
          1.6202799872890057 1.7739788263584446 1.9174143262031198 2.041858666441658 2.1439039519660708 2.224415051181645
          2.2875636280878524 2.312535423847214 2.312535423847214 2.312535423847214 2.312535423847214 2.312535423847214
          2.312535423847214 2.312535423847214 2.312535423847214 2.312535423847214 2.312535423847214 2.312535423847214
          2.312535423847214 2.312535423847214 2.312535423847214 2.312535423847214 2.312535423847214 2.312535423847214
          2.312535423847214 2.312535423847214 2.312535423847214 2.312535423847214 2.241998303404926 2.0816900145478123
          1.969903298115429 1.894721559769213 1.8431423268082248 1.7984728617295682 1.7389114178518144 1.6511591510288062
          1.5371063338065105 1.4053723580826103 1.2720791366702064 1.1457213749885669 1.0222434260262585 0.8937351310591315
          0.7616598632731322 0.6434037520625991 0.5660858326208594 0.5541149868128108 0.6106684988501782 0.7227991396655832
          0.8646348316625976 1.0260330363269607 1.2038499181136253 1.3938187667553743 1.584996098797231 1.7624098231661327
          1.91718986936352 2.045298869609959 2.1485742737929385 2.2319572805032384 2.3006686325426657 2.312535423847214
          2.312535423847214 2.312535423847214 2.312535423847214 2.312535423847214 2.312535423847214 2.312535423847214
          2.312535423847214 2.312535423847214 2.312535423847214 2.312535423847214 2.312535423847214 2.312535423847214
          2.312535423847214 2.312535423847214 2.312535423847214 2.312535423847214 2.312535423847214 2.312535423847214
          2.312535423847214 2.1540631851350365 1.9995583641321404 1.895264104029096 1.8264270997438428 1.776845676617763
          1.7257360265327668 1.655407426543919 1.5606049330078984 1.4489323297281576 1.3300034362787259 1.21197374205105
          1.0931985451928847 0.9637384253342839 0.8134465350015508 0.6416553240761491 0.4641352112334768 0.3155761671375468
          0.2396961528547026 0.26224469338013245 0.3721899580077263 0.5328709224895932 0.7248723461569709 0.9372819875952935
          1.161501764825766 1.3843647109683146 1.5917924450544536 1.774106467181562 1.928331093699911 2.0564363842841145
          2.1627711915938694 2.2534457974355133 2.312535423847214 2.312535423847214 2.312535423847214 2.312535423847214
          2.312535423847214 2.312535423847214 2.312535423847214 2.312535423847214 2.312535423847214 2.312535423847214
          2.312535423847214 2.312535423847214 2.312535423847214 2.312535423847214 2.312535423847214 2.312535423847214
          2.312535423847214 2.312535423847214 2.312535423847214 2.308974234381533 2.0888725150908276 1.9375016113988066
          1.8385293095036994 1.772081488803329 1.7179802426500363 1.6571829829829625 1.5769616749239759 1.4789500603652204
          1.3703388894510142 1.259663472703091 1.1464473269824074 1.0219943889116432 0.8745238302008773 0.695254869093272
          0.4820269826474702 0.24275383016733007 0.018243157938135114 -0.13036747574165908 -0.14717032469601948 -0.024400020067631263
          0.18964160343476666 0.4411678094648799 0.6971910476165956 0.9522210047784846 1.1993731655044602 1.42781318236787
          1.631674477901624 1.8088026582667058 1.9605557422170619 2.090892186792219 2.2060913778615694 2.312535423847214
          2.312535423847214 2.312535423847214 2.312535423847214 2.312535423847214 2.312535423847214 2.312535423847214
          2.312535423847214 2.312535423847214 2.312535423847214 2.312535423847214 2.312535423847214 2.312535423847214
          2.312535423847214 2.312535423847214 2.312535423847214 2.312535423847214 2.312535423847214 2.312535423847214
          2.2745369266691284 2.045497407006542 1.8943732840407832 1.7995952990042074 1.7332012012503903 1.6734989721357691
          1.6033030143596505 1.51521483664132 1.4121200889954495 1.30141916553681 1.1864074266207574 1.060380256607752
          0.911868784247498 0.7260164254254161 0.4990045340966963 0.23213364916988508 -0.06469700553800829 -0.35094715681587796
          -0.5566917035117573 -0.5981929147560492 -0.4363941416521632 -0.13329775680740044 0.20153687371181575 0.5151394897036273
          0.8052139538948947 1.0748142207576428 1.3193454284841712 1.5373106323541936 1.7291525528571756 1.8970708835675163
          2.0456186867560535 2.1804859952895317 2.3077942897163504 2.312535423847214 2.312535423847214 2.312535423847214
          2.312535423847214 2.312535423847214 2.312535423847214 2.312535423847214 2.312535423847214 2.312535423847214
          2.312535423847214 2.312535423847214 2.312535423847214 2.312535423847214 2.312535423847214 2.312535423847214
          2.312535423847214 2.312535423847214 2.312535423847214 2.273548872141738 2.0280555047499305 1.8750545139631767
          1.7853371531742612 1.7198367150850835 1.6537897748973662 1.574785229425698 1.4777310399417456 1.3664371776285937
          1.2453909928791962 1.1094351757752587 0.9482801527328957 0.7491737551520927 0.5042082981340567 0.22738311904650368
          -0.06726606950855216 -0.3762630539284044 -0.6643974050909135 -0.8591563008347424 -0.8832783655268852 -0.6953498125892521
          -0.33095660157273615 0.07418769983486977 0.4435605816729325 0.7726387079073898 1.064697374676338 1.320862016609622
          1.543960643062856 1.7388688676716852 1.9107365158454392 2.0639509693883427 2.204209135380219 2.312535423847214
          2.312535423847214 2.312535423847214 2.312535423847214 2.312535423847214 2.312535423847214 2.312535423847214
          2.312535423847214 2.312535423847214 2.312535423847214 2.312535423847214 2.312535423847214 2.312535423847214
          2.312535423847214 2.312535423847214 2.312535423847214 2.312535423847214 2.312535423847214 2.312535423847214
          2.3034239294878467 2.0364588613488075 1.8847813965852975 1.805904304630554 1.742477023935007 1.6676301153688327
          1.5772760739438592 1.4704896341120883 1.3492038875017913 1.2098428049526555 1.0410251102479218 0.83309367737738
          0.5856760235248047 0.3147525549924076 0.03825088685368185 -0.23705991407106483 -0.5082093746086983 -0.7461669369398045
          -0.8983588417318525 -0.9036743711632731 -0.6990513119903058 -0.3141501030178882 0.1137493970725612 0.5127584287971401
          0.8647659057188591 1.1680332449527613 1.42634668374967 1.6472779866763902 1.8372391436470588 2.002102729140618
          2.1478135788925887 2.279709916561131 2.312535423847214 2.312535423847214 2.312535423847214 2.312535423847214
          2.312535423847214 2.312535423847214 2.312535423847214 2.312535423847214 2.312535423847214 2.312535423847214
          2.312535423847214 2.312535423847214 2.312535423847214 2.312535423847214 2.312535423847214 2.312535423847214
          2.312535423847214 2.312535423847214 2.312535423847214 2.312535423847214 2.076594521263993 1.9262425075085512
          1.862642422768797 1.8043635676014527 1.7197140374395483 1.6146169402454955 1.496057539707341 1.3626004740900473
          1.2032992071336908 1.006824998327487 0.7683455446589904 0.505730270322925 0.24045480172247674 -0.00975180768452499
          -0.2419379267298339 -0.4576036301773738 -0.6451699003148903 -0.7645724917035525 -0.7328137919712489 -0.5028392397339903
          -0.12811622338881795 0.2946952676559724 0.6956868147051597 1.046116817150043 1.3418580445412724 1.5904809139280274
          1.8003850149816407 1.9783163552272751 2.130701574817826 2.263011818582136 2.312535423847214 2.312535423847214
          2.312535423847214 2.312535423847214 2.312535423847214 2.312535423847214 2.312535423847214 2.312535423847214
          2.312535423847214 2.312535423847214 2.312535423847214 2.312535423847214 2.312535423847214 2.312535423847214
          2.312535423847214 2.312535423847214 2.312535423847214 2.312535423847214 2.312535423847214 2.312535423847214
          2.312535423847214 2.160722566102752 2.008629477686042 1.9537326482482806 1.8994957663539171 1.8068911679294883
          1.6849468395029572 1.551268078956513 1.4041550312858013 1.2305715424056252 1.0198543120190053 0.7753654223927859
          0.5223039330825695 0.28262131842104526 0.07013807463754936 -0.11859240293450803 -0.28883724474194034 -0.43277960492806505
          -0.5087069361424453 -0.4399001202919595 -0.20519708887289614 0.15548277010618708 0.557277378670516 0.9358500131231308
          1.2647212542692399 1.539602857459016 1.7695408361973803 1.9620779825593324 2.1234775105125343 2.260534189778393
          2.312535423847214 2.312535423847214 2.312535423847214 2.312535423847214 2.312535423847214 2.312535423847214
          2.312535423847214 2.312535423847214 2.312535423847214 2.312535423847214 2.312535423847214 2.312535423847214
          2.312535423847214 2.312535423847214 2.312535423847214 2.312535423847214 2.312535423847214 2.312535423847214