<VTKFile type="PolyData" version="1.0" byte_order="LittleEndian" header_type="UInt64">
  <PolyData>
    <Piece NumberOfPoints="2601" NumberOfVerts="0" NumberOfLines="0" NumberOfStrips="0" NumberOfPolys="2500">
      <PointData>
        <DataArray type="Float32" Name="zvalue" NumberOfComponents="1" format="ascii" RangeMin="-2.125898659855297" RangeMax="2.312535423847214">
          2.312535423847214 2.312535423847214 2.312535423847214 2.312535423847214 2.312535423847214 2.312535423847214
          2.312535423847214 2.312535423847214 2.312535423847214 2.312535423847214 2.312535423847214 2.312535423847214
          2.312535423847214 2.312535423847214 2.312535423847214 2.312535423847214 2.312535423847214 2.312535423847214
          2.312535423847214 2.312535423847214 2.312535423847214 2.312535423847214 2.312535423847214 2.312535423847214
          2.312535423847214 2.312535423847214 2.312535423847214 2.312535423847214 2.312535423847214 2.312535423847214
          2.312535423847214 2.312535423847214 2.312535423847214 2.312535423847214 2.312535423847214 2.312535423847214
          2.312535423847214 2.312535423847214 2.312535423847214 2.312535423847214 2.312535423847214 2.312535423847214
          2.312535423847214 2.312535423847214 2.312535423847214 2.312535423847214 2.312535423847214 2.312535423847214
          2.312535423847214 2.312535423847214 2.312535423847214 2.312535423847214 2.312535423847214 2.312535423847214
          2.312535423847214 2.312535423847214 2.312535423847214 2.312535423847214 2.312535423847214 2.312535423847214
          2.312535423847214 2.312535423847214 2.312535423847214 2.312535423847214 2.312535423847214 2.312535423847214
          2.312535423847214 2.312535423847214 2.312535423847214 2.312535423847214 2.312535423847214 2.312535423847214
          2.312535423847214 2.312535423847214 2.312535423847214 2.312535423847214 2.312535423847214 2.312535423847214
          2.312535423847214 2.312535423847214 2.312535423847214 2.312535423847214 2.312535423847214 2.312535423847214
          2.312535423847214 2.312535423847214 2.312535423847214 2.312535423847214 2.312535423847214 2.312535423847214
          2.312535423847214 2.312535423847214 2.312535423847214 2.312535423847214 2.312535423847214 2.312535423847214
          2.312535423847214 2.312535423847214 2.312535423847214 2.312535423847214 2.312535423847214 2.312535423847214
          2.312535423847214 2.312535423847214 2.312535423847214 2.312535423847214 2.312535423847214 2.312535423847214
          2.312535423847214 2.312535423847214 2.312535423847214 2.312535423847214 2.312535423847214 2.312535423847214
          2.312535423847214 2.312535423847214 2.312535423847214 2.312535423847214 2.312535423847214 2.312535423847214
          2.312535423847214 2.312535423847214 2.312535423847214 2.312535423847214 2.312535423847214 2.312535423847214
          2.312535423847214 2.312535423847214 2.312535423847214 2.312535423847214 2.312535423847214 2.312535423847214
          2.312535423847214 2.312535423847214 2.312535423847214 2.312535423847214 2.312535423847214 2.312535423847214
          2.312535423847214 2.312535423847214 2.312535423847214 2.312535423847214 2.312535423847214 2.312535423847214
          2.312535423847214 2.312535423847214 2.312535423847214 2.312535423847214 2.312535423847214 2.312535423847214
          2.312535423847214 2.312535423847214 2.312535423847214 2.312535423847214 2.312535423847214 2.312535423847214
          2.312535423847214 2.312535423847214 2.312535423847214 2.312535423847214 2.312535423847214 2.312535423847214
          2.312535423847214 2.312535423847214 2.312535423847214 2.312535423847214 2.312535423847214 2.312535423847214
          2.312535423847214 2.312535423847214 2.312535423847214 2.312535423847214 2.312535423847214 2.312535423847214
          2.312535423847214 2.312535423847214 2.312535423847214 2.312535423847214 2.312535423847214 2.312535423847214
          2.312535423847214 2.312535423847214 2.312535423847214 2.312535423847214 2.312535423847214 2.312535423847214
          2.312535423847214 2.312535423847214 2.312535423847214 2.312535423847214 2.312535423847214 2.312535423847214
          2.312535423847214 2.312535423847214 2.312535423847214 2.312535423847214 2.312535423847214 2.312535423847214
          2.312535423847214 2.312535423847214 2.312535423847214 2.312535423847214 2.312535423847214 2.312535423847214
          2.312535423847214 2.312535423847214 2.312535423847214 2.312535423847214 2.312535423847214 2.312535423847214
          2.312535423847214 2.312535423847214 2.312535423847214 2.312535423847214 2.312535423847214 2.312535423847214
          2.312535423847214 2.312535423847214 2.312535423847214 2.312535423847214 2.312535423847214 2.312535423847214
          2.312535423847214 2.312535423847214 2.312535423847214 2.312535423847214 2.312535423847214 2.312535423847214
          2.312535423847214 2.312535423847214 2.312535423847214 2.312535423847214 2.312535423847214 2.312535423847214
          2.312535423847214 2.312535423847214 2.312535423847214 2.312535423847214 2.312535423847214 2.312535423847214
          2.312535423847214 2.312535423847214 2.312535423847214 2.312535423847214 2.312535423847214 2.312535423847214
          2.312535423847214 2.312535423847214 2.312535423847214 2.312535423847214 2.312535423847214 2.312535423847214
          2.312535423847214 2.312535423847214 2.312535423847214 2.312535423847214 2.312535423847214 2.312535423847214
          2.312535423847214 2.312535423847214 2.312535423847214 2.312535423847214 2.312535423847214 2.312535423847214
          2.312535423847214 2.312535423847214 2.312535423847214 2.312535423847214 2.312535423847214 2.312535423847214
          2.312535423847214 2.312535423847214 2.312535423847214 2.312535423847214 2.312535423847214 2.312535423847214
          2.312535423847214 2.312535423847214 2.312535423847214 2.312535423847214 2.312535423847214 2.312535423847214
          2.312535423847214 2.312535423847214 2.312535423847214 2.312535423847214 2.312535423847214 2.312535423847214
          2.312535423847214 2.312535423847214 2.312535423847214 2.312535423847214 2.312535423847214 2.312535423847214
          2.312535423847214 2.312535423847214 2.312535423847214 2.312535423847214 2.312535423847214 2.312535423847214
          2.312535423847214 2.312535423847214 2.312535423847214 2.312535423847214 2.312535423847214 2.312535423847214
          2.312535423847214 2.312535423847214 2.312535423847214 2.312535423847214 2.312535423847214 2.312535423847214
          2.312535423847214 2.312535423847214 2.312535423847214 2.312535423847214 2.312535423847214 2.312535423847214
          2.312535423847214 2.312535423847214 2.312535423847214 2.312535423847214 2.312535423847214 2.312535423847214
          2.312535423847214 2.312535423847214 2.312535423847214 2.312535423847214 2.312535423847214 2.312535423847214
          2.312535423847214 2.312535423847214 2.312535423847214 2.312535423847214 2.312535423847214 2.312535423847214
          2.312535423847214 2.312535423847214 2.312535423847214 2.312535423847214 2.312535423847214 2.312535423847214
          2.312535423847214 2.312535423847214 2.312535423847214 2.312535423847214 2.312535423847214 2.312535423847214
          2.312535423847214 2.312535423847214 2.312535423847214 2.312535423847214 2.312535423847214 2.312535423847214
          2.312535423847214 2.312535423847214 2.312535423847214 2.312535423847214 2.312535423847214 2.312535423847214
          2.312535423847214 2.312535423847214 2.312535423847214 2.312535423847214 2.312535423847214 2.312535423847214
          2.312535423847214 2.312535423847214 2.312535423847214 2.312535423847214 2.312535423847214 2.312535423847214
          2.312535423847214 2.312535423847214 2.312535423847214 2.312535423847214 2.312535423847214 2.312535423847214
          2.312535423847214 2.312535423847214 2.312535423847214 2.312535423847214 2.312535423847214 2.312535423847214
          2.312535423847214 2.312535423847214 2.312535423847214 2.312535423847214 2.312535423847214 2.312535423847214
          2.312535423847214 2.312535423847214 2.312535423847214 2.312535423847214 2.312535423847214 2.312535423847214
          2.312535423847214 2.312535423847214 2.312535423847214 2.312535423847214 2.312535423847214 2.312535423847214
          2.312535423847214 2.312535423847214 2.312535423847214 2.312535423847214 2.312535423847214 2.312535423847214
          2.312535423847214 2.312535423847214 2.312535423847214 2.312535423847214 2.312535423847214 2.312535423847214
          2.312535423847214 2.312535423847214 2.312535423847214 2.312535423847214 2.312535423847214 2.312535423847214
          2.312535423847214 2.312535423847214 2.312535423847214 2.312535423847214 2.312535423847214 2.312535423847214
          2.312535423847214 2.312535423847214 2.312535423847214 2.312535423847214 2.312535423847214 2.312535423847214
          2.312535423847214 2.312535423847214 2.312535423847214 2.312535423847214 2.312535423847214 2.312535423847214
          2.312535423847214 2.312535423847214 2.312535423847214 2.312535423847214 2.312535423847214 2.312535423847214
          2.312535423847214 2.312535423847214 2.312535423847214 2.312535423847214 2.312535423847214 2.312535423847214
          2.312535423847214 2.312535423847214 2.312535423847214 2.312535423847214 2.312535423847214 2.312535423847214
          2.312535423847214 2.312535423847214 2.312535423847214 2.312535423847214 2.312535423847214 2.312535423847214
          2.312535423847214 2.312535423847214 2.312535423847214 2.312535423847214 2.312535423847214 2.312535423847214
          2.312535423847214 2.312535423847214 2.312535423847214 2.312535423847214 2.312535423847214 2.312535423847214
          2.312535423847214 2.312535423847214 2.312535423847214 2.312535423847214 2.312535423847214 2.312535423847214
          2.312535423847214 2.271885374234901 2.2386748525067417 2.222292324692417 2.2207747305704513 2.230165328579091
          2.248398975655126 2.2736869108195905 2.3039098426585585 2.312535423847214 2.312535423847214 2.312535423847214
          2.312535423847214 2.312535423847214 2.312535423847214 2.312535423847214 2.312535423847214 2.312535423847214
          2.312535423847214 2.312535423847214 2.312535423847214 2.312535423847214 2.312535423847214 2.312535423847214
          2.312535423847214 2.312535423847214 2.312535423847214 2.312535423847214 2.312535423847214 2.312535423847214
          2.312535423847214 2.312535423847214 2.312535423847214 2.312535423847214 2.312535423847214 2.312535423847214
          2.312535423847214 2.312535423847214 2.312535423847214 2.312535423847214 2.312535423847214 2.312535423847214
          2.312535423847214 2.312535423847214 2.312535423847214 2.312535423847214 2.312535423847214 2.312535423847214
          2.312535423847214 2.312535423847214 2.2430737725170764 2.1741026955839846 2.1258095422369356 2.098287309394717
          2.088393396388807 2.092779789273158 2.107383540083133 2.1301462181236266 2.1587091659986277 2.191528233855343
          2.2260379071320804 2.2603761782821574 2.293788138305025 2.312535423847214 2.312535423847214 2.312535423847214
          2.312535423847214 2.312535423847214 2.312535423847214 2.312535423847214 2.312535423847214 2.312535423847214
          2.312535423847214 2.312535423847214 2.312535423847214 2.312535423847214 2.312535423847214 2.312535423847214
          2.312535423847214 2.312535423847214 2.312535423847214 2.312535423847214 2.312535423847214 2.312535423847214
          2.312535423847214 2.312535423847214 2.312535423847214 2.312535423847214 2.312535423847214 2.312535423847214
          2.312535423847214 2.312535423847214 2.312535423847214 2.312535423847214 2.312535423847214 2.312535423847214
          2.312535423847214 2.312535423847214 2.312535423847214 2.2628345373383687 2.1625898433542043 2.0737987724986033
          2.003833583767539 1.9565115874469978 1.930285695134018 1.9220457222602336 1.9281217016042973 1.9452685545970054
          1.9701303012551574 2.0003384692340513 2.0353233478629154 2.072955253613278 2.1104510573916464 2.1474727270484553
          2.185045215463064 2.2249745029523105 2.270849899691599 2.312535423847214 2.312535423847214 2.312535423847214
          2.312535423847214 2.312535423847214 2.312535423847214 2.312535423847214 2.312535423847214 2.312535423847214
          2.312535423847214 2.312535423847214 2.312535423847214 2.312535423847214 2.312535423847214 2.312535423847214
          2.312535423847214 2.312535423847214 2.312535423847214 2.312535423847214 2.312535423847214 2.312535423847214
          2.312535423847214 2.312535423847214 2.312535423847214 2.312535423847214 2.312535423847214 2.312535423847214
          2.312535423847214 2.312535423847214 2.312535423847214 2.312535423847214 2.312535423847214 2.2003901210987733
          2.084603286986664 1.974947247876721 1.8803404234645753 1.8066831289175156 1.755602865736381 1.725718818994416
          1.7141864358182957 1.7173917482280265 1.7333651445290152 1.7592565943622167 1.79104693343194 1.828395642067483
          1.8698328307758538 1.9128510687180709 1.9566398566185064 2.002953246568255 2.054870121581135 2.1133796774933873
          2.18092831311563 2.259501666275791 2.312535423847214 2.312535423847214 2.312535423847214 2.312535423847214
          2.312535423847214 2.312535423847214 2.312535423847214 2.312535423847214 2.312535423847214 2.312535423847214
          2.312535423847214 2.312535423847214 2.312535423847214 2.312535423847214 2.312535423847214 2.312535423847214
          2.312535423847214 2.312535423847214 2.312535423847214 2.312535423847214 2.312535423847214 2.312535423847214
          2.312535423847214 2.312535423847214 2.312535423847214 2.312535423847214 2.312535423847214 2.312535423847214
          2.2670298782706295 2.1463877101741073 2.0172321306229617 1.8864797895322452 1.7653052899069033 1.6602728387835304
          1.5773099156954706 1.5168148327694677 1.4776852222757833 1.4582047002716623 1.4558654393500714 1.4686559476569687
          1.4936517265217149 1.5286111881747102 1.5709643921110572 1.619083332878954 1.6705198517697155 1.724212367874812
          1.783352888180585 1.850836414350801 1.9269901807164533 2.013643777976138 2.111437622739549 2.2193050997070607
          2.312535423847214 2.312535423847214 2.312535423847214 2.312535423847214 2.312535423847214 2.312535423847214
          2.312535423847214 2.312535423847214 2.312535423847214 2.312535423847214 2.312535423847214 2.312535423847214
          2.312535423847214 2.312535423847214 2.312535423847214 2.312535423847214 2.312535423847214 2.312535423847214
          2.312535423847214 2.312535423847214 2.312535423847214 2.312535423847214 2.312535423847214 2.312535423847214
          2.312535423847214 2.312535423847214 2.2417024955295717 2.107125316955032 1.96496057717485 1.815777776156314
          1.6676632096425112 1.5300988835223552 1.4097317679377586 1.311237390853844 1.2356039898226596 1.18263085953131
          1.1529163357233831 1.143700389713349 1.1528854854762551 1.1782214822125676 1.2174155276170484 1.2693415663337901
          1.3299692060500017 1.3959681590069841 1.465892157165905 1.542219365701464 1.6287798837178316 1.726947123033295
          1.8371019025388011 1.957700953764821 2.0863626898295893 2.217700546114067 2.312535423847214 2.312535423847214
          2.312535423847214 2.312535423847214 2.312535423847214 2.312535423847214 2.312535423847214 2.312535423847214
          2.312535423847214 2.312535423847214 2.312535423847214 2.312535423847214 2.312535423847214 2.312535423847214
          2.312535423847214 2.312535423847214 2.312535423847214 2.312535423847214 2.312535423847214 2.312535423847214
          2.312535423847214 2.312535423847214 2.312535423847214 2.312535423847214 2.2556364820143138 2.0978067484784386
          1.9362555707229092 1.7671468977146811 1.5936249693959508 1.4237418387489431 1.265649576037414 1.1249533181018325
          1.0050578303085727 0.9092445194784669 0.8401831724564635 0.7981921282849337 0.7814417945097284 0.7899559820651701
          0.8197544872141712 0.8690789559159006 0.9366299367791414 1.016318994099615 1.1046841277211799 1.1984133387055136
          1.2993231256335953 1.4100992058692885 1.5331333376597063 1.6687699562971838 1.8143299718628043 1.963756918904629
          2.1112693699569154 2.2522866717586547 2.312535423847214 2.312535423847214 2.312535423847214 2.312535423847214
          2.312535423847214 2.312535423847214 2.312535423847214 2.312535423847214 2.312535423847214 2.312535423847214
          2.312535423847214 2.312535423847214 2.312535423847214 2.312535423847214 2.312535423847214 2.312535423847214
          2.312535423847214 2.312535423847214 2.312535423847214 2.312535423847214 2.312535423847214 2.312535423847214
          2.312535423847214 2.1372166832788024 1.9483351646136744 1.7536409250583818 1.552102367866932 1.3493321670222485
          1.1538689116047571 0.9706840054716175 0.8041173921502921 0.6585655709871602 0.5401946457441852 0.45354525094138826
          0.4005396642089762 0.38038328419338413 0.3925316631283877 0.43249476115118823 0.49875697163129795 0.5872527051220913
          0.6921004354226608 0.8099318403668998 0.9351665153084447 1.0670276399216967 1.207144187969391 1.3580368245494476
          1.5201797814594111 1.6893721143525606 1.8580283458740983 2.020399453825426 2.171323294243614 2.3112210707875422
          2.312535423847214 2.312535423847214 2.312535423847214 2.312535423847214 2.312535423847214 2.312535423847214
          2.312535423847214 2.312535423847214 2.312535423847214 2.312535423847214 2.312535423847214 2.312535423847214
          2.312535423847214 2.312535423847214 2.312535423847214 2.312535423847214 2.312535423847214 2.312535423847214
          2.312535423847214 2.312535423847214 2.312535423847214 2.2308649988465294 2.0176896932630286 1.792007583027393
          1.558154670486258 1.3206909178887145 1.0857832923896427 0.8610153889135361 0.6488273777083157 0.45271294500754894
          0.27986308559306056 0.1381529460974105 0.03354757244395948 -0.03035669424477415 -0.05047145528666527 -0.03077788165123772
          0.025395301549312157 0.11517056093529482 0.2327665493295441 0.3711294182712537 0.5238443639888919 0.6856491827753721
          0.8529886885445801 1.0247263368176662 1.2042253435488084 1.3917321552065858 1.5821478503064903 1.7687802122970973
          1.9448814956523246 2.104964705635174 2.249545856873414 2.312535423847214 2.312535423847214 2.312535423847214
          2.312535423847214 2.312535423847214 2.312535423847214 2.312535423847214 2.312535423847214 2.312535423847214
          2.312535423847214 2.312535423847214 2.312535423847214 2.312535423847214 2.312535423847214 2.312535423847214
          2.312535423847214 2.312535423847214 2.312535423847214 2.312535423847214 2.312535423847214 2.312535423847214
          2.142553628818764 1.8926533464125646 1.625453518112903 1.3506332419777047 1.0767736578824587 0.8111025681875544
          0.5570037169446328 0.3143309026091334 0.08688275996910795 -0.11536021686141414 -0.2840974565413434 -0.40727367268365156
          -0.4786894343016325 -0.4981364466793112 -0.4663545899863669 -0.38936929514152296 -0.2705430489368377 -0.11713688477951628
          0.06052785695276621 0.25289379824767083 0.454510851651701 0.6593628146018203 0.8640475050175498 1.0700510888312504
          1.280487023494199 1.4900888932831042 1.6921736992152403 1.8799788112307847 2.049380043844 2.1997572662824116
          2.312535423847214 2.312535423847214 2.312535423847214 2.312535423847214 2.312535423847214 2.312535423847214
          2.312535423847214 2.312535423847214 2.312535423847214 2.312535423847214 2.312535423847214 2.312535423847214
          2.312535423847214 2.312535423847214 2.312535423847214 2.312535423847214 2.312535423847214 2.312535423847214
          2.312535423847214 2.312535423847214 2.3034747571840657 2.048556102713989 1.758475225810332 1.4493328358312938
          1.1364510736068298 0.8306473798376892 0.5386816205801982 0.2579348919005395 -0.01461148659290098 -0.272904004243561
          -0.5090741279762019 -0.7074587312608032 -0.8500437576903669 -0.9273375962920081 -0.9431764568378903 -0.8964752187211572
          -0.7930097064830509 -0.6404530881299856 -0.4475437694281034 -0.22812401099407434 0.005025391416643241 0.2463250298023786
          0.48780295239106697 0.7243936184504821 0.9569095584915844 1.185904854465696 1.4104415179471452 1.6246609144594348
          1.82319474076153 2.001539623717988 2.159731172389446 2.300068943754679 2.312535423847214 2.312535423847214
          2.312535423847214 2.312535423847214 2.312535423847214 2.312535423847214 2.312535423847214 2.312535423847214
          2.312535423847214 2.312535423847214 2.312535423847214 2.312535423847214 2.312535423847214 2.312535423847214
          2.312535423847214 2.312535423847214 2.312535423847214 2.312535423847214 2.312535423847214 2.2372881702150336
          1.94688744517572 1.6169072382692053 1.2696453992273664 0.9267846577312975 0.5987011408726522 0.2862054406130956
          -0.019101146545028688 -0.3177396610711693 -0.6083329597024605 -0.8770615881149804 -1.1024400508874568 -1.2584591069457622
          -1.3414320546658733 -1.3516536767608631 -1.2922274949281092 -1.1643691038095978 -0.9779702720231772 -0.7504370485563114
          -0.4913997038516901 -0.21659237404588885 0.06137367918687478 0.3381681007849034 0.6048923162842079 0.8618547421302182
          1.1086266777184586 1.3449504973046211 1.5677098639169933 1.77459265806337 1.9615375182941563 2.127987544465585
          2.2746537776517397 2.312535423847214 2.312535423847214 2.312535423847214 2.312535423847214 2.312535423847214
          2.312535423847214 2.312535423847214 2.312535423847214 2.312535423847214 2.312535423847214 2.312535423847214
          2.312535423847214 2.312535423847214 2.312535423847214 2.312535423847214 2.312535423847214 2.312535423847214
          2.312535423847214 2.312535423847214 2.1645847978679327 1.8402482320071498 1.4755288929755468 1.1007048497788319
          0.739355500609932 0.3987145153329631 0.06950345102402143 -0.2565954163740251 -0.5830841065307736 -0.903807465255444
          -1.199331491544729 -1.4389384598183095 -1.5969739335520872 -1.6728040969383375 -1.6745654929889193 -1.6084397420774295
          -1.4715482231912513 -1.2694227961262923 -1.0129326086475743 -0.7223633695091604 -0.410453251674839 -0.09553818985502105
          0.21308902958078488 0.5083954353336316 0.7873528423473757 1.050354833494229 1.2964919269048476 1.5261072174608847
          1.7384783404851876 1.9308614120830818 2.104345895335789 2.2582930597950357 2.312535423847214 2.312535423847214
          2.312535423847214 2.312535423847214 2.312535423847214 2.312535423847214 2.312535423847214 2.312535423847214
          2.312535423847214 2.312535423847214 2.312535423847214 2.312535423847214 2.312535423847214 2.312535423847214
          2.312535423847214 2.312535423847214 2.312535423847214 2.312535423847214 2.312535423847214 2.088149031508189
          1.7350170652597992 1.345993028780915 0.9568952334378911 0.5892992577383996 0.24093569333250578 -0.10058513814550477
          -0.44568093789863156 -0.7974076173499205 -1.1414498445518682 -1.4523724968231921 -1.6892940791759292 -1.8327654206234671
          -1.8964847050394213 -1.8946316383231752 -1.830367177599722 -1.697190560735647 -1.4925019209126484 -1.225087387036078
          -0.9087747586325 -0.566979833237858 -0.2189029387641643 0.11921587253660004 0.43860457818228255 0.7369763864695406
          1.0135014595895893 1.2677319663849873 1.5025914117231818 1.7185238777874448 1.9147665527453306 2.0925821442570114
          2.252808575318347 2.312535423847214 2.312535423847214 2.312535423847214 2.312535423847214 2.312535423847214
          2.312535423847214 2.312535423847214 2.312535423847214 2.312535423847214 2.312535423847214 2.312535423847214
          2.312535423847214 2.312535423847214 2.312535423847214 2.312535423847214 2.312535423847214 2.312535423847214
          2.312535423847214 2.312535423847214 2.0117752237832627 1.6384748625518302 1.2381260230704279 0.8488207358516925
          0.4833825494525972 0.13160805767555994 -0.21949582176715823 -0.5801861644510208 -0.9499585142630358 -1.3097236596608348
          -1.6250330108009179 -1.8514448398384074 -1.9784715499216978 -2.0313879828752253 -2.026694566895109 -1.966741384281679
          -1.8413270612806167 -1.64313243754441 -1.3717118442705993 -1.038138500468781 -0.672667557252176 -0.29811809289925595
          0.0643672542871351 0.40370552931533593 0.7150396022269494 1.0008605621729838 1.2610027810228732 1.498565599184675
          1.716758106465926 1.915129641122317 2.095837272453954 2.2615685388251245 2.312535423847214 2.312535423847214
          2.312535423847214 2.312535423847214 2.312535423847214 2.312535423847214 2.312535423847214 2.312535423847214
          2.312535423847214 2.312535423847214 2.312535423847214 2.312535423847214 2.312535423847214 2.312535423847214
          2.312535423847214 2.312535423847214 2.312535423847214 2.312535423847214 2.2617529382939003 1.9399653257520297
          1.5579305428815782 1.1596370423926017 0.7805205149007223 0.4226712382194934 0.07234104447040719 -0.28487663249009426
          -0.6559787250847108 -1.0382900150629237 -1.4087680517548546 -1.7231198653634756 -1.9395612905300115 -2.056723612512917
          -2.1026340030853334 -2.094991320314432 -2.0366603463926753 -1.9163481618290228 -1.7217795525255093 -1.4464252681159417
          -1.1007706437350062 -0.7180295319361533 -0.3249265794068126 0.053500093834802954 0.4056615210841083 0.7252477519180448
          1.014860840191089 1.277892704622739 1.5165954078711148 1.7350352966701819 1.9344920432462687 2.1173960220211376
          2.287155455349794 2.312535423847214 2.312535423847214 2.312535423847214 2.312535423847214 2.312535423847214
          2.312535423847214 2.312535423847214 2.312535423847214 2.312535423847214 2.312535423847214 2.312535423847214
          2.312535423847214 2.312535423847214 2.312535423847214 2.312535423847214 2.312535423847214 2.312535423847214
          2.312535423847214 2.206336597120084 1.8785201511873366 1.4994043744949617 1.1154185351587866 0.7529143500518579
          0.4070017566013228 0.06033517012134384 -0.29857133146515497 -0.6726825976469469 -1.0605643591679872 -1.436336785288668
          -1.7521307140464617 -1.96796601826019 -2.0825197989206647 -2.125898659855297 -2.116292214161284 -2.0546384052141184
          -1.9318568907053852 -1.7326896709230102 -1.4479257795807383 -1.0914407885743547 -0.6980733843103261 -0.29649378306848767
          0.08732094726270592 0.44233852224021564 0.7645706595025137 1.054273800351209 1.3159470010125802 1.5539765423979996
          1.7719964613908494 1.9722280958070115 2.1576254463625615 2.312535423847214 2.312535423847214 2.312535423847214
          2.312535423847214 2.312535423847214 2.312535423847214 2.312535423847214 2.312535423847214 2.312535423847214
          2.312535423847214 2.312535423847214 2.312535423847214 2.312535423847214 2.312535423847214 2.312535423847214
          2.312535423847214 2.312535423847214 2.312535423847214 2.312535423847214 2.157648193143268 1.833725026867017
          1.469080831174887 1.1072438899114896 0.7644530194808391 0.43241870941456734 0.0929712402497414 -0.26241162154298997
          -0.6336672793277012 -1.0207464906795782 -1.3974722522677345 -1.7172329204115508 -1.939784468941411 -2.0620793841131793
          -2.108484964803788 -2.095767256618668 -2.0246572345629175 -1.8904245429117341 -1.6772179762546104 -1.3771189722679846
          -1.0120820160648019 -0.615894733470123 -0.21575547455496838 0.16300106528868144 0.5113176123160262 0.8277487660955613
          1.1138191180721437 1.3722391270303311 1.60798791186209 1.8250633126435658 2.0262840958486703 2.213804188000473
          2.312535423847214 2.312535423847214 2.312535423847214 2.312535423847214 2.312535423847214 2.312535423847214
          2.312535423847214 2.312535423847214 2.312535423847214 2.312535423847214 2.312535423847214 2.312535423847214
          2.312535423847214 2.312535423847214 2.312535423847214 2.312535423847214 2.312535423847214 2.312535423847214
          2.312535423847214 2.1192303490449373 1.8101551462281658 1.4701335984792745 1.1353717707169981 0.8134599757954843
          0.4960725407401269 0.1677800809309502 -0.1793522659370058 -0.5434421831007873 -0.9231479310546113 -1.2962739957362701
          -1.6200565251786554 -1.8539205412120034 -1.9905170032055683 -2.043992475749717 -2.0272445019357015 -1.944685684863537
          -1.7900301465155113 -1.5515737696580527 -1.235456550068713 -0.8671356915478136 -0.47613793624187545 -0.08927752885223479
          0.27360413923924354 0.6067619425166687 0.9113028562920152 1.1891079413091519 1.4427554493738026 1.6753429902618602
          1.8906875444583082 2.092372367226422 2.282551243302745 2.312535423847214 2.312535423847214 2.312535423847214
          2.312535423847214 2.312535423847214 2.312535423847214 2.312535423847214 2.312535423847214 2.312535423847214
          2.312535423847214 2.312535423847214 2.312535423847214 2.312535423847214 2.312535423847214 2.312535423847214
          2.312535423847214 2.312535423847214 2.312535423847214 2.312535423847214 2.0925334845556334 1.8090886869971257
          1.501359779241767 1.1961195020827862 0.8966449354245168 0.595969673138969 0.28195236257299217 -0.052016137579699126
          -0.4039558073548225 -0.7704036550115347 -1.1351320578576574 -1.4580451991850967 -1.7034700765482382 -1.8546817242601428
          -1.9152029767394738 -1.894734117481099 -1.7973809755037835 -1.617569471307187 -1.3574128648527883 -1.0337833914265104
          -0.669211658086295 -0.2938891233163209 0.06958070769024893 0.40804592506956094 0.7196466924018275 1.00800680084745
          1.2759355474803507 1.5236251258633495 1.7524317923668928 1.9659837416932866 2.167776920300603 2.312535423847214