<VTKFile type="PolyData" version="1.0" byte_order="LittleEndian" header_type="UInt64">
  <PolyData>
    <Piece NumberOfPoints="2601" NumberOfVerts="0" NumberOfLines="0" NumberOfStrips="0" NumberOfPolys="2500">
      <PointData>
        <DataArray type="Float32" Name="zvalue" NumberOfComponents="1" format="ascii" RangeMin="-1.9736154845543188" RangeMax="2.312535423847214">
          2.312535423847214 2.312535423847214 2.312535423847214 2.312535423847214 2.312535423847214 2.312535423847214
          2.312535423847214 2.312535423847214 2.312535423847214 2.312535423847214 2.312535423847214 2.312535423847214
          2.312535423847214 2.312535423847214 2.312535423847214 2.312535423847214 2.312535423847214 2.312535423847214
          2.312535423847214 2.312535423847214 2.312535423847214 2.312535423847214 2.312535423847214 2.312535423847214
          2.312535423847214 2.312535423847214 2.312535423847214 2.312535423847214 2.312535423847214 2.312535423847214
          2.312535423847214 2.312535423847214 2.312535423847214 2.312535423847214 2.312535423847214 2.312535423847214
          2.312535423847214 2.312535423847214 2.312535423847214 2.312535423847214 2.312535423847214 2.312535423847214
          2.312535423847214 2.312535423847214 2.312535423847214 2.312535423847214 2.312535423847214 2.312535423847214
          2.312535423847214 2.312535423847214 2.312535423847214 2.312535423847214 2.312535423847214 2.312535423847214
          2.312535423847214 2.312535423847214 2.312535423847214 2.312535423847214 2.312535423847214 2.312535423847214
          2.312535423847214 2.312535423847214 2.312535423847214 2.312535423847214 2.312535423847214 2.312535423847214
          2.312535423847214 2.312535423847214 2.312535423847214 2.312535423847214 2.312535423847214 2.312535423847214
          2.312535423847214 2.312535423847214 2.312535423847214 2.312535423847214 2.312535423847214 2.312535423847214
          2.312535423847214 2.312535423847214 2.312535423847214 2.312535423847214 2.312535423847214 2.312535423847214
          2.312535423847214 2.312535423847214 2.312535423847214 2.312535423847214 2.312535423847214 2.312535423847214
          2.312535423847214 2.312535423847214 2.312535423847214 2.312535423847214 2.312535423847214 2.312535423847214
          2.312535423847214 2.312535423847214 2.312535423847214 2.312535423847214 2.312535423847214 2.312535423847214
          2.312535423847214 2.312535423847214 2.312535423847214 2.312535423847214 2.312535423847214 2.312535423847214
          2.312535423847214 2.312535423847214 2.312535423847214 2.312535423847214 2.312535423847214 2.312535423847214
          2.312535423847214 2.312535423847214 2.312535423847214 2.312535423847214 2.312535423847214 2.312535423847214
          2.312535423847214 2.312535423847214 2.312535423847214 2.312535423847214 2.312535423847214 2.312535423847214
          2.312535423847214 2.312535423847214 2.312535423847214 2.312535423847214 2.312535423847214 2.312535423847214
          2.312535423847214 2.312535423847214 2.312535423847214 2.312535423847214 2.312535423847214 2.312535423847214
          2.312535423847214 2.312535423847214 2.312535423847214 2.312535423847214 2.312535423847214 2.312535423847214
          2.312535423847214 2.312535423847214 2.312535423847214 2.312535423847214 2.312535423847214 2.312535423847214
          2.312535423847214 2.312535423847214 2.312535423847214 2.312535423847214 2.312535423847214 2.312535423847214
          2.312535423847214 2.312535423847214 2.312535423847214 2.312535423847214 2.312535423847214 2.312535423847214
          2.312535423847214 2.312535423847214 2.312535423847214 2.312535423847214 2.312535423847214 2.312535423847214
          2.312535423847214 2.312535423847214 2.312535423847214 2.312535423847214 2.312535423847214 2.312535423847214
          2.312535423847214 2.312535423847214 2.312535423847214 2.312535423847214 2.312535423847214 2.312535423847214
          2.312535423847214 2.312535423847214 2.312535423847214 2.312535423847214 2.312535423847214 2.312535423847214
          2.312535423847214 2.312535423847214 2.312535423847214 2.312535423847214 2.312535423847214 2.312535423847214
          2.312535423847214 2.312535423847214 2.312535423847214 2.312535423847214 2.312535423847214 2.312535423847214
          2.312535423847214 2.312535423847214 2.312535423847214 2.312535423847214 2.312535423847214 2.312535423847214
          2.312535423847214 2.312535423847214 2.312535423847214 2.312535423847214 2.312535423847214 2.312535423847214
          2.312535423847214 2.312535423847214 2.312535423847214 2.312535423847214 2.312535423847214 2.312535423847214
          2.312535423847214 2.312535423847214 2.312535423847214 2.312535423847214 2.312535423847214 2.312535423847214
          2.312535423847214 2.312535423847214 2.312535423847214 2.312535423847214 2.312535423847214 2.312535423847214
          2.312535423847214 2.312535423847214 2.312535423847214 2.312535423847214 2.312535423847214 2.312535423847214
          2.312535423847214 2.312535423847214 2.312535423847214 2.312535423847214 2.312535423847214 2.312535423847214
          2.312535423847214 2.312535423847214 2.312535423847214 2.312535423847214 2.312535423847214 2.312535423847214
          2.312535423847214 2.312535423847214 2.312535423847214 2.312535423847214 2.312535423847214 2.312535423847214
          2.312535423847214 2.312535423847214 2.312535423847214 2.312535423847214 2.312535423847214 2.312535423847214
          2.312535423847214 2.312535423847214 2.312535423847214 2.312535423847214 2.312535423847214 2.312535423847214
          2.312535423847214 2.312535423847214 2.312535423847214 2.312535423847214 2.312535423847214 2.312535423847214
          2.312535423847214 2.312535423847214 2.312535423847214 2.312535423847214 2.312535423847214 2.312535423847214
          2.312535423847214 2.312535423847214 2.312535423847214 2.312535423847214 2.312535423847214 2.312535423847214
          2.312535423847214 2.312535423847214 2.312535423847214 2.312535423847214 2.312535423847214 2.312535423847214
          2.312535423847214 2.312535423847214 2.312535423847214 2.312535423847214 2.312535423847214 2.312535423847214
          2.312535423847214 2.312535423847214 2.312535423847214 2.312535423847214 2.312535423847214 2.312535423847214
          2.312535423847214 2.312535423847214 2.312535423847214 2.312535423847214 2.312535423847214 2.312535423847214
          2.312535423847214 2.312535423847214 2.312535423847214 2.312535423847214 2.312535423847214 2.312535423847214
          2.312535423847214 2.312535423847214 2.312535423847214 2.312535423847214 2.312535423847214 2.312535423847214
          2.312535423847214 2.312535423847214 2.312535423847214 2.312535423847214 2.312535423847214 2.312535423847214
          2.312535423847214 2.312535423847214 2.312535423847214 2.312535423847214 2.312535423847214 2.312535423847214
          2.312535423847214 2.312535423847214 2.312535423847214 2.312535423847214 2.312535423847214 2.312535423847214
          2.312535423847214 2.312535423847214 2.312535423847214 2.312535423847214 2.312535423847214 2.312535423847214
          2.312535423847214 2.312535423847214 2.312535423847214 2.312535423847214 2.312535423847214 2.312535423847214
          2.312535423847214 2.312535423847214 2.312535423847214 2.312535423847214 2.312535423847214 2.312535423847214
          2.312535423847214 2.312535423847214 2.312535423847214 2.312535423847214 2.312535423847214 2.312535423847214
          2.312535423847214 2.312535423847214 2.312535423847214 2.312535423847214 2.312535423847214 2.312535423847214
          2.312535423847214 2.312535423847214 2.312535423847214 2.312535423847214 2.312535423847214 2.312535423847214
          2.312535423847214 2.312535423847214 2.312535423847214 2.312535423847214 2.312535423847214 2.312535423847214
          2.312535423847214 2.312535423847214 2.312535423847214 2.312535423847214 2.312535423847214 2.312535423847214
          2.312535423847214 2.312535423847214 2.312535423847214 2.312535423847214 2.312535423847214 2.312535423847214
          2.312535423847214 2.312535423847214 2.312535423847214 2.312535423847214 2.312535423847214 2.312535423847214
          2.312535423847214 2.312535423847214 2.312535423847214 2.312535423847214 2.312535423847214 2.312535423847214
          2.312535423847214 2.312535423847214 2.312535423847214 2.312535423847214 2.312535423847214 2.312535423847214
          2.312535423847214 2.312535423847214 2.312535423847214 2.312535423847214 2.312535423847214 2.312535423847214
          2.312535423847214 2.312535423847214 2.312535423847214 2.312535423847214 2.312535423847214 2.312535423847214
          2.312535423847214 2.312535423847214 2.312535423847214 2.312535423847214 2.312535423847214 2.312535423847214
          2.312535423847214 2.312535423847214 2.312535423847214 2.312535423847214 2.312535423847214 2.312535423847214
          2.312535423847214 2.312535423847214 2.312535423847214 2.312535423847214 2.312535423847214 2.312535423847214
          2.312535423847214 2.312535423847214 2.312535423847214 2.312535423847214 2.312535423847214 2.312535423847214
          2.312535423847214 2.312535423847214 2.312535423847214 2.312535423847214 2.312535423847214 2.312535423847214
          2.312535423847214 2.312535423847214 2.312535423847214 2.312535423847214 2.312535423847214 2.312535423847214
          2.312535423847214 2.312535423847214 2.312535423847214 2.312535423847214 2.312535423847214 2.312535423847214
          2.312535423847214 2.312535423847214 2.312535423847214 2.312535423847214 2.312535423847214 2.312535423847214
          2.312535423847214 2.312535423847214 2.312535423847214 2.312535423847214 2.312535423847214 2.312535423847214
          2.312535423847214 2.312535423847214 2.312535423847214 2.312535423847214 2.312535423847214 2.312535423847214
          2.312535423847214 2.312535423847214 2.312535423847214 2.312535423847214 2.312535423847214 2.312535423847214
          2.312535423847214 2.312535423847214 2.312535423847214 2.312535423847214 2.312535423847214 2.312535423847214
          2.312535423847214 2.312535423847214 2.312535423847214 2.312535423847214 2.312535423847214 2.312535423847214
          2.312535423847214 2.312535423847214 2.312535423847214 2.312535423847214 2.312535423847214 2.312535423847214
          2.312535423847214 2.312535423847214 2.312535423847214 2.312535423847214 2.312535423847214 2.312535423847214
          2.312535423847214 2.312535423847214 2.312535423847214 2.312535423847214 2.312535423847214 2.312535423847214
          2.312535423847214 2.312535423847214 2.312535423847214 2.312535423847214 2.312535423847214 2.312535423847214
          2.312535423847214 2.312535423847214 2.312535423847214 2.312535423847214 2.312535423847214 2.312535423847214
          2.312535423847214 2.312535423847214 2.312535423847214 2.301342020681387 2.285102846710469 2.272240523505896
          2.249667515759753 2.212146264992499 2.1704393025490556 2.1438952388778945 2.1451291955905343 2.174166887700648
          2.231946907451111 2.312535423847214 2.312535423847214 2.312535423847214 2.312535423847214 2.312535423847214
          2.312535423847214 2.312535423847214 2.312535423847214 2.312535423847214 2.312535423847214 2.312535423847214
          2.312535423847214 2.312535423847214 2.312535423847214 2.312535423847214 2.312535423847214 2.312535423847214
          2.312535423847214 2.312535423847214 2.312535423847214 2.312535423847214 2.312535423847214 2.312535423847214
          2.312535423847214 2.312535423847214 2.312535423847214 2.312535423847214 2.312535423847214 2.312535423847214
          2.312535423847214 2.312535423847214 2.312535423847214 2.312535423847214 2.312535423847214 2.312535423847214
          2.312535423847214 2.312535423847214 2.303154533859161 2.1926815442859415 2.1247807632185256 2.0951629354689487
          2.0930469965518315 2.101604460515765 2.103063568938081 2.0901355550384473 2.0649814617467346 2.037789946522063
          2.0276812522084464 2.0495251642774335 2.1029643099192796 2.1601085107909945 2.1955293328985217 2.2445125758990305
          2.312535423847214 2.312535423847214 2.312535423847214 2.312535423847214 2.312535423847214 2.312535423847214
          2.312535423847214 2.312535423847214 2.312535423847214 2.312535423847214 2.312535423847214 2.312535423847214
          2.312535423847214 2.312535423847214 2.312535423847214 2.312535423847214 2.312535423847214 2.312535423847214
          2.312535423847214 2.312535423847214 2.312535423847214 2.312535423847214 2.312535423847214 2.312535423847214
          2.312535423847214 2.312535423847214 2.312535423847214 2.312535423847214 2.312535423847214 2.312535423847214
          2.312535423847214 2.312535423847214 2.312535423847214 2.312535423847214 2.1906086361779233 2.0706166480643318
          1.9855129408423948 1.9550638928458468 1.9740919261421481 2.005325922073495 2.018134998004475 2.004639570906495
          1.969812404186948 1.928538689721756 1.8952448332493743 1.88796607140185 1.919223628825402 1.9951906624895654
          2.1026215985510426 2.186625469034504 2.2155009321501247 2.230277804291006 2.312535423847214 2.312535423847214
          2.312535423847214 2.312535423847214 2.312535423847214 2.312535423847214 2.312535423847214 2.312535423847214
          2.312535423847214 2.312535423847214 2.312535423847214 2.312535423847214 2.312535423847214 2.312535423847214
          2.312535423847214 2.312535423847214 2.312535423847214 2.312535423847214 2.312535423847214 2.312535423847214
          2.312535423847214 2.312535423847214 2.312535423847214 2.312535423847214 2.312535423847214 2.312535423847214
          2.312535423847214 2.312535423847214 2.312535423847214 2.312535423847214 2.312535423847214 2.246581845095682
          2.095396162775054 1.977706618239242 1.894380221020833 1.8761033740105253 1.9263887324319446 1.9912727708696527
          2.030118899255498 2.0320397635161336 1.987895695160517 1.9138651732584437 1.8274081346440094 1.7523609790469745
          1.724771912315232 1.7483930318777912 1.8172207916901082 1.9365980793500914 2.084574125225773 2.188881502418844
          2.2182951642544033 2.2309618826219566 2.312535423847214 2.312535423847214 2.312535423847214 2.312535423847214
          2.312535423847214 2.312535423847214 2.312535423847214 2.312535423847214 2.312535423847214 2.312535423847214
          2.312535423847214 2.312535423847214 2.312535423847214 2.312535423847214 2.312535423847214 2.312535423847214
          2.312535423847214 2.312535423847214 2.312535423847214 2.312535423847214 2.312535423847214 2.312535423847214
          2.312535423847214 2.312535423847214 2.312535423847214 2.312535423847214 2.312535423847214 2.312535423847214
          2.312535423847214 2.2031015916032786 2.0277099886982555 1.9059471428332702 1.827009952376513 1.8143186931561108
          1.8774081320352507 1.97218386097919 2.049184764840356 2.08711288970042 2.0709296396958368 1.9996126622233577
          1.8954268630784676 1.7684349870793874 1.6519415118538079 1.5893168545529253 1.591947154096362 1.6429675404757975
          1.7423344431989702 1.8939147602916215 2.0669041527751193 2.180828478248592 2.2042844396438297 2.228680704819162
          2.312535423847214 2.312535423847214 2.312535423847214 2.312535423847214 2.312535423847214 2.312535423847214
          2.312535423847214 2.312535423847214 2.312535423847214 2.312535423847214 2.312535423847214 2.312535423847214
          2.312535423847214 2.312535423847214 2.312535423847214 2.312535423847214 2.312535423847214 2.312535423847214
          2.312535423847214 2.312535423847214 2.312535423847214 2.312535423847214 2.312535423847214 2.312535423847214
          2.312535423847214 2.312535423847214 2.312535423847214 2.2397965533520363 2.0138027360892914 1.8650743343609872
          1.772382244779368 1.7367728998567147 1.7811708505702566 1.8938371233440694 2.0124277018377588 2.090480699543239
          2.1092684604526024 2.068350099420075 1.9728711175726013 1.8466457651325932 1.704862124654717 1.5631594108801017
          1.466864679462713 1.4393929940856014 1.4730968434879164 1.5548125034677136 1.6897766012032542 1.8761538288653599
          2.0639062389415805 2.173246150523263 2.1788824345471633 2.2458140886127924 2.312535423847214 2.312535423847214
          2.312535423847214 2.312535423847214 2.312535423847214 2.312535423847214 2.312535423847214 2.312535423847214
          2.312535423847214 2.312535423847214 2.312535423847214 2.312535423847214 2.312535423847214 2.312535423847214
          2.312535423847214 2.312535423847214 2.312535423847214 2.312535423847214 2.312535423847214 2.312535423847214
          2.312535423847214 2.312535423847214 2.312535423847214 2.312535423847214 2.312535423847214 2.312535423847214
          2.0864104822876253 1.8809391549970254 1.751600940973311 1.6717762224180102 1.6659247881070953 1.7625704014473957
          1.9090296858790774 2.0247139324047088 2.0794552023607595 2.0655109366323487 1.9853244184646088 1.864726177354913
          1.7265127265763163 1.5711429597680564 1.4175358622668388 1.3046021735672826 1.256461873976101 1.2782629363717815
          1.3503679376115014 1.471248180261283 1.6563191893318858 1.8745312451793297 2.0654329057930703 2.1494086730812647
          2.145233353755955 2.312535423847214 2.312535423847214 2.312535423847214 2.312535423847214 2.312535423847214
          2.312535423847214 2.312535423847214 2.312535423847214 2.312535423847214 2.312535423847214 2.312535423847214
          2.312535423847214 2.312535423847214 2.312535423847214 2.312535423847214 2.312535423847214 2.312535423847214
          2.312535423847214 2.312535423847214 2.312535423847214 2.312535423847214 2.312535423847214 2.312535423847214
          2.312535423847214 2.312535423847214 2.2492509868081445 1.9812155039344237 1.7929113189712336 1.669208112781992
          1.593429155245322 1.616348552529927 1.7515201493892145 1.8978117459302395 1.9824015712397998 1.9919232536591627
          1.9259736751442555 1.8042029349165378 1.650553669700292 1.4741784647333063 1.2933261916605296 1.142325512298645
          1.0463831561031853 1.017258100255696 1.0535121830071514 1.1422591089201772 1.267497892449317 1.4527267132394277
          1.6776102046906876 1.8894896006200068 2.0576639915710704 2.10985677208749 2.145376038854092 2.312535423847214
          2.312535423847214 2.312535423847214 2.312535423847214 2.312535423847214 2.312535423847214 2.312535423847214
          2.312535423847214 2.312535423847214 2.312535423847214 2.312535423847214 2.312535423847214 2.312535423847214
          2.312535423847214 2.312535423847214 2.312535423847214 2.312535423847214 2.312535423847214 2.312535423847214
          2.312535423847214 2.312535423847214 2.312535423847214 2.312535423847214 2.312535423847214 2.165021845527482
          1.912319620626381 1.7397272460599784 1.621389540390682 1.5442640066373898 1.575461008524811 1.7130809923877814
          1.8335422579459104 1.8729388550915969 1.8260060431214489 1.7010109709074495 1.514868080666388 1.2864806705756509
          1.0433025102559275 0.8373390366181579 0.7073796976891221 0.6636894991084603 0.6933212037699944 0.7806939857765338
          0.9179785437175718 1.0976080771376084 1.308729408685019 1.5404111681941697 1.7486743415974613 1.906354966835236
          2.0333967994553452 2.084132631544353 2.2128908495937574 2.312535423847214 2.312535423847214 2.312535423847214
          2.312535423847214 2.312535423847214 2.312535423847214 2.312535423847214 2.312535423847214 2.312535423847214
          2.312535423847214 2.312535423847214 2.312535423847214 2.312535423847214 2.312535423847214 2.312535423847214
          2.312535423847214 2.312535423847214 2.312535423847214 2.312535423847214 2.312535423847214 2.312535423847214
          2.312535423847214 2.312535423847214 2.108331846452805 1.878895294313492 1.7275554787174152 1.6181255961758445
          1.5316666359340183 1.5342005796951386 1.6365313309083196 1.7180274058030376 1.70737636301793 1.594687040637075
          1.385217050663559 1.099863463782385 0.7766092494303443 0.47927849387630994 0.2732358625206528 0.18328132016174434
          0.20315051803978953 0.3051218943990513 0.46160002395128313 0.6663873880592068 0.9244562125008189 1.2036207540593742
          1.4543103310434795 1.6740550155365181 1.825404638733046 1.9379679107129835 2.0378260050137254 2.1131137285142896
          2.312535423847214 2.312535423847214 2.312535423847214 2.312535423847214 2.312535423847214 2.312535423847214
          2.312535423847214 2.312535423847214 2.312535423847214 2.312535423847214 2.312535423847214 2.312535423847214
          2.312535423847214 2.312535423847214 2.312535423847214 2.312535423847214 2.312535423847214 2.312535423847214
          2.312535423847214 2.312535423847214 2.312535423847214 2.312535423847214 2.312535423847214 2.0847802940162254
          1.8841695859564882 1.7527122767308636 1.6541162284201039 1.5542238402832844 1.5081057764313446 1.5484946534343558
          1.5724551912252733 1.4959500949594093 1.2930283879136872 0.9765090314067764 0.5876702367429916 0.1931143589955385
          -0.12059124803430986 -0.30002320612911587 -0.3412147135006045 -0.2579421733507281 -0.08407128899581312 0.14479325657515693
          0.41939926837657704 0.7468551432617808 1.107103565356869 1.4116988249697373 1.6397168391104846 1.807395485089978
          1.9156283412579607 2.0192423610548875 2.1132927271185418 2.229398333215918 2.312535423847214 2.312535423847214
          2.312535423847214 2.312535423847214 2.312535423847214 2.312535423847214 2.312535423847214 2.312535423847214
          2.312535423847214 2.312535423847214 2.312535423847214 2.312535423847214 2.312535423847214 2.312535423847214
          2.312535423847214 2.312535423847214 2.312535423847214 2.312535423847214 2.312535423847214 2.312535423847214
          2.312535423847214 2.312535423847214 2.0935102609442398 1.9204361037501725 1.8021896058751965 1.7061368754681894
          1.5922879421543623 1.4969275637608188 1.4590980359836005 1.4031563503155446 1.2367018959125555 0.9249509159563304
          0.49907240522094315 0.030107880879206288 -0.3897323666194048 -0.6863957989561856 -0.8342757459486098 -0.8293140808753566
          -0.686823437918121 -0.44077384912227774 -0.1250847691052521 0.24028168855350024 0.6299706512493896 1.0267345092860563
          1.3875184672099383 1.6476921641578177 1.8207591459681531 1.9448593170387232 2.0567869660319977 2.1725393110865934
          2.269575001013072 2.312535423847214 2.312535423847214 2.312535423847214 2.312535423847214 2.312535423847214
          2.312535423847214 2.312535423847214 2.312535423847214 2.312535423847214 2.312535423847214 2.312535423847214
          2.312535423847214 2.312535423847214 2.312535423847214 2.312535423847214 2.312535423847214 2.312535423847214
          2.312535423847214 2.312535423847214 2.312535423847214 2.312535423847214 2.312535423847214 2.1274473021394713
          1.976021819491065 1.8627925735518631 1.7575028681416827 1.624946021618622 1.4831199196803233 1.3628328085759538
          1.2102898618380888 0.9365227975522176 0.5121230126888955 -0.007187784963393658 -0.5171906957455854 -0.9291676206538111
          -1.19634620361981 -1.305754236672376 -1.2592741372789102 -1.0653501100432716 -0.7376501208912413 -0.319969138815468
          0.14045302856678182 0.5872945427414098 0.9979213045934169 1.3635201688036098 1.6687204449429853 1.8749937070118798
          2.0054827986704558 2.1329939756557987 2.2607443653884802 2.312535423847214 2.312535423847214 2.312535423847214
          2.312535423847214 2.312535423847214 2.312535423847214 2.312535423847214 2.312535423847214 2.312535423847214
          2.312535423847214 2.312535423847214 2.312535423847214 2.312535423847214 2.312535423847214 2.312535423847214
          2.312535423847214 2.312535423847214 2.312535423847214 2.312535423847214 2.312535423847214 2.312535423847214
          2.312535423847214 2.312535423847214 2.179579909169286 2.047073935430893 1.9322771392588614 1.8089194045976147
          1.6510035558672298 1.4641056955388245 1.2630358515333937 1.0087654406155304 0.6245327931045731 0.09648281228679198
          -0.4870308050112791 -1.0061808622108002 -1.3878715951674445 -1.6110498809280054 -1.676307563130506 -1.590506777895445
          -1.3533063836326378 -0.9511536186277921 -0.4486908716117109 0.090002182508901 0.5851419078383524 1.000651728205202
          1.3540123954072576 1.672913157188015 1.9324349822341027 2.095815251363023 2.2269542279641494 2.312535423847214
          2.312535423847214 2.312535423847214 2.312535423847214 2.312535423847214 2.312535423847214 2.312535423847214
          2.312535423847214 2.312535423847214 2.312535423847214 2.312535423847214 2.312535423847214 2.312535423847214
          2.312535423847214 2.312535423847214 2.312535423847214 2.312535423847214 2.312535423847214 2.312535423847214
          2.312535423847214 2.312535423847214 2.312535423847214 2.312535423847214 2.312535423847214 2.240166845338739
          2.131515925935806 2.0187615776521652 1.8793886040125856 1.6964985668503247 1.4687019861646329 1.1964787878268768
          0.8525446602397388 0.3751903983857894 -0.2342873530202328 -0.8611532888479198 -1.3699431235771742 -1.7041959128717554
          -1.8702475387361033 -1.8965606190174609 -1.7883510331286703 -1.5193722629459023 -1.0695244352504756 -0.5141539912916765
          0.07461596155759845 0.5992177496091379 1.021473613512585 1.3609707958996644 1.6754154572943845 1.9660308730013016
          2.1720425121333196 2.312535423847214 2.312535423847214 2.312535423847214 2.312535423847214 2.312535423847214
          2.312535423847214 2.312535423847214 2.312535423847214 2.312535423847214 2.312535423847214 2.312535423847214
          2.312535423847214 2.312535423847214 2.312535423847214 2.312535423847214 2.312535423847214 2.312535423847214
          2.312535423847214 2.312535423847214 2.312535423847214 2.312535423847214 2.312535423847214 2.312535423847214
          2.312535423847214 2.312535423847214 2.2888726799419974 2.2103537887989555 2.114256761025154 1.982982009688679
          1.7994257902210484 1.5533726563259496 1.2407796199479222 0.844541239559024 0.3209803830233785 -0.33309779519987814
          -1.0202420299653376 -1.546635927654948 -1.8484125052910645 -1.9725183854555859 -1.9736154845543188 -1.8521455339301525
          -1.5577787276669026 -1.084160891363877 -0.5030904748743634 0.0965063193423663 0.6235617810636589 1.0467963386919419
          1.384086850753497 1.6918045770223464 1.9874816098514139 2.219283032156511 2.312535423847214 2.312535423847214
          2.312535423847214 2.312535423847214 2.312535423847214 2.312535423847214 2.312535423847214 2.312535423847214
          2.312535423847214 2.312535423847214 2.312535423847214 2.312535423847214 2.312535423847214 2.312535423847214
          2.312535423847214 2.312535423847214 2.312535423847214 2.312535423847214 2.312535423847214 2.312535423847214
          2.312535423847214 2.312535423847214 2.312535423847214 2.312535423847214 2.312535423847214 2.2822884093545004
          2.228893274982307 2.166678391425784 2.0771181215526244 1.941356357152673 1.7336710641849764 1.4427114134438268
          1.0699655438381492 0.6049051844282187 0.008854574581190927 -0.7101728735055116 -1.3841447902834456 -1.7890458072533906
          -1.941420675577708 -1.9384578540365716 -1.7901204287177044 -1.4571807089477882 -0.9672426640826959 -0.3901863614387374
          0.1821471199524172 0.6821503671977349 1.091077816192847 1.4275197045696728 1.7295159458951423 2.0136592266603333
          2.2492559532970957 2.312535423847214 2.312535423847214 2.312535423847214 2.312535423847214 2.312535423847214
          2.312535423847214 2.312535423847214 2.312535423847214 2.312535423847214 2.312535423847214 2.312535423847214
          2.312535423847214 2.312535423847214 2.312535423847214 2.312535423847214 2.312535423847214 2.312535423847214
          2.312535423847214 2.312535423847214 2.312535423847214 2.312535423847214 2.312535423847214 2.312535423847214
          2.312535423847214 2.3088802141871723 2.2561229489145425 2.203730633688017 2.1512964440479645 2.0980002619872824
          2.01590231829877 1.8696484438304397 1.6481608706549487 1.3631818997137553 1.025805074846025 0.6229967670185674
          0.11847545192744859 -0.495420237996578 -1.1263106145587705 -1.5603462659877994 -1.6814903405373012 -1.5305249480574685
          -1.165077605635243 -0.6678541196498595 -0.12777839293828894 0.3805322765188479 0.8241663665557228 1.1979899137970857
          1.5164697544704593 1.8008458743699847 2.057324937940571 2.2759501647009928 2.312535423847214 2.312535423847214
          2.312535423847214 2.312535423847214 2.312535423847214 2.312535423847214 2.312535423847214 2.312535423847214
          2.312535423847214 2.312535423847214 2.312535423847214 2.312535423847214 2.312535423847214 2.312535423847214
          2.312535423847214 2.312535423847214 2.312535423847214 2.312535423847214 2.312535423847214 2.312535423847214
          2.312535423847214 2.312535423847214 2.312535423847214 2.312535423847214 2.3046451738847016 2.2689062978888708
          2.218318776397042 2.149227193127924 2.083225451060559 2.0019817190333016 1.875589814776494 1.6954558957555284
          1.4657740333914362 1.1955578387789705 0.8786599452723195 0.5138912427579272 0.12379206682731951 -0.25062276145595486
          -0.5889605244698599 -0.828856671232217 -0.8439800990064997 -0.5844366768267636 -0.16125142640957102 0.30475674914942574
          0.7424417166754065 1.115371179620195 1.4235555360194763 1.6869841944006878 1.9190298619052804 2.125483266566236
          2.3090820357696815 2.312535423847214 2.312535423847214 2.312535423847214 2.312535423847214 2.312535423847214
          2.312535423847214 2.312535423847214 2.312535423847214 2.312535423847214 2.312535423847214 2.312535423847214
          2.312535423847214 2.312535423847214 2.312535423847214 2.312535423847214 2.312535423847214 2.312535423847214